

 Distributed Data Interface kickoff program.
 Initiating 1 compute processes on 1 nodes to run the following command:
 /home/servidor/src/gamess/gamess.00.x ETHANOL 

          ******************************************************
          *      GAMESS VERSION = 30 JUN 2019 R1 Patch 1       *
          *             FROM IOWA STATE UNIVERSITY             *
          * M.W.SCHMIDT, K.K.BALDRIDGE, J.A.BOATZ, S.T.ELBERT, *
          *   M.S.GORDON, J.H.JENSEN, S.KOSEKI, N.MATSUNAGA,   *
          *          K.A.NGUYEN, S.J.SU, T.L.WINDUS,           *
          *       TOGETHER WITH M.DUPUIS, J.A.MONTGOMERY       *
          *         J.COMPUT.CHEM.  14, 1347-1363(1993)        *
          **************** 64 BIT LINUX VERSION ****************

  EXECUTION OF GAMESS BEGUN Thu Jan 30 01:46:37 2020

            ECHO OF THE FIRST FEW INPUT CARDS -
 INPUT CARD>! SELECT RESTRICTED HARTREE-FOCK AS DEFAULT                                     
 INPUT CARD> $contrl scftyp=rhf $end                                                        
 INPUT CARD>                                                                                
 INPUT CARD>! THEORY: HF OR DFT                                                             
 INPUT CARD> $contrl mplevl=0 $end                                                          
 INPUT CARD>                                                                                
 INPUT CARD> $system timlim=10000 mwords=20 $end                                            
 INPUT CARD> $SCF DIRSCF=.TRUE. $end                                                        
 INPUT CARD>                                                                                
 INPUT CARD>! BASIS SETS                                                                    
 INPUT CARD>! KTZVP                                                                         
 INPUT CARD> $contrl ISPHER=1 $END                                                          
 INPUT CARD> $BASIS GBASIS=KTZVP $END                                                       
 INPUT CARD>                                                                                
 INPUT CARD>! One of the following                                                          
 INPUT CARD> $guess guess=HUCKEL $end                                                       
 INPUT CARD>                                                                                
 INPUT CARD> $statpt projct=.FALSE. $end                                                    
 INPUT CARD> $STATPT IFREEZ(1)=1,2,3 $END                                                   
 INPUT CARD>                                                                                
 INPUT CARD>! Optimize the geometry with COSMO effects                                      
 INPUT CARD> $statpt opttol=0.0005 nstep=50 $end                                            
 INPUT CARD> $contrl runtyp=OPTIMIZE maxit=200 $end                                         
 INPUT CARD>                                                                                
 INPUT CARD>! Run COSMO on perfect conductor                                                
 INPUT CARD> $COSGMS PRFCND=.TRUE. $end                                                     
 INPUT CARD>                                                                                
 INPUT CARD>! Specifying RSOLV                                                              
 INPUT CARD> $COSGMS COSRAD = 1.4 $end                                                      
 INPUT CARD>                                                                                
 INPUT CARD>! available memory                                                              
 INPUT CARD> $SYSTEM MWORDS=50 $END                                                         
 INPUT CARD>                                                                                
 INPUT CARD>! Internal Coordinates                                                          
 INPUT CARD> $CONTRL nzvar=1 $END                                                           
 INPUT CARD> $zmat dlc=.t. auto=.t. $END                                                    
 INPUT CARD>                                                                                
 INPUT CARD> $DATA                                                                          
 INPUT CARD>                                                                                
 INPUT CARD>C1                                                                              
 INPUT CARD>C      6.0      1.1265000000    0.9063000000    0.9707000000                    
 INPUT CARD>C      6.0      1.8231000000    2.1303000000    1.5257000000                    
 INPUT CARD>O      8.0      3.2040000000    1.8429000000    1.6874000000                    
 INPUT CARD>H      1.0      0.0576000000    1.0933000000    0.8349000000                    
 INPUT CARD>H      1.0      1.2531000000    0.0519000000    1.6440000000                    
 INPUT CARD>H      1.0      1.5603000000    0.6189000000    0.0074000000                    
 INPUT CARD>H      1.0      1.7172000000    2.9764000000    0.8398000000                    
 INPUT CARD>H      1.0      1.4035000000    2.4030000000    2.4984000000                    
 INPUT CARD>H      1.0      3.6223000000    2.6448000000    2.0452000000                    
 INPUT CARD> $END                                                                           
   50000000 WORDS OF MEMORY AVAILABLE

     ---------------------------
     ATOM         COORDINATES           RADIUS 
     1    2.1288    1.7127    1.8344    2.0000
     2    3.4452    4.0257    2.8832    2.0000
     3    6.0547    3.4826    3.1887    1.7200
     4    0.1088    2.0660    1.5777    1.3000
     5    2.3680    0.0981    3.1067    1.3000
     6    2.9485    1.1696    0.0140    1.3000
     7    3.2450    5.6246    1.5870    1.3000
     8    2.6522    4.5410    4.7213    1.3000
     9    6.8452    4.9979    3.8649    1.3000

          ----------------
          
       ***** EQUILIBRIUM GEOMETRY LOCATED *****
            (SUBJECT TO   3 CONSTRAINT(S))
 COORDINATES OF ALL ATOMS ARE (ANGS)
   ATOM   CHARGE       X              Y              Z
 ------------------------------------------------------------
 C           6.0   1.1262836408   0.9028060695   0.9694838985
 C           6.0   1.8269424991   2.1264855701   1.5250495536
 O           8.0   3.2047669354   1.8493733060   1.6897905520
 H           1.0   0.0691048436   1.1126053896   0.8435879319
 H           1.0   1.2252872479   0.0561398022   1.6406367858
 H           1.0   1.5327955686   0.6232849979   0.0032014577
 H           1.0   1.7008647749   2.9659059059   0.8483171276
 H           1.0   1.3920506807   2.4014021786   2.4809625968
 H           1.0   3.6385492375   2.6132450852   2.0372789807


                     --------------------
                     INTERNAL COORDINATES
                     --------------------

                 - - ATOMS - -         COORDINATE      COORDINATE
 NO.   TYPE    I  J  K  L  M  N        (BOHR,RAD)       (ANG,DEG)
 ----------------------------------------------------------------
   1 STRETCH   1  5                     2.0502366       1.0849386
   2 STRETCH   1  4                     2.0505857       1.0851233
   3 STRETCH   1  2                     2.8640214       1.5155750
   4 STRETCH   1  6                     2.0502314       1.0849358
   5 STRETCH   2  7                     2.0514530       1.0855823
   6 STRETCH   2  8                     2.0514451       1.0855781
   7 STRETCH   2  3                     2.6740330       1.4150374
   8 STRETCH   3  9                     1.7851814       0.9446774
   9 BEND      1  2  3                  1.9120914     109.5547688
  10 BEND      1  2  7                  1.9199626     110.0057565
  11 BEND      1  2  8                  1.9198973     110.0020115
  12 BEND      2  3  9                  1.9087760     109.3648100
  13 BEND      2  1  6                  1.9404353     111.1787543
  14 BEND      2  1  4                  1.9143394     109.6835702
  15 BEND      2  1  5                  1.9402775     111.1697130
  16 BEND      3  2  8                  1.9146856     109.7034032
  17 BEND      3  2  7                  1.9146171     109.6994790
  18 BEND      4  1  6                  1.8875876     108.1508029
  19 BEND      4  1  5                  1.8876242     108.1529016
  20 BEND      5  1  6                  1.8919988     108.4035460
  21 BEND      7  2  8                  1.8823915     107.8530857
  22 TORSION   1  2  3  9              -3.1401713    -179.9185607
  23 TORSION   3  2  1  5               1.0534850      60.3602435
  24 TORSION   3  2  1  6              -1.0561317     -60.5118914
  25 TORSION   3  2  1  4               3.1402423     179.9226292
  26 TORSION   4  1  2  7              -1.0369485     -59.4127752
  27 TORSION   4  1  2  8               1.0342042      59.2555378
  28 TORSION   5  1  2  7              -3.1237058    -178.9751609
  29 TORSION   5  1  2  8              -1.0525531     -60.3068479
  30 TORSION   6  1  2  7               1.0498627      60.1527042
  31 TORSION   6  1  2  8               3.1210155     178.8210172
  32 TORSION   7  2  3  9               1.0337764      59.2310230
  33 TORSION   8  2  3  9              -1.0309713     -59.0703019

          GAMESS/COSab RESULTS
 =====================================================

   Dielectric Constant                  = INFTY
   Basic Grid Size                      =                 1082
   Number of Segments                   =                   92
   Number of Segments located on spheres=                  163
   Number of Segments of the cavity     =                  362
   Solvent Radius (rsolv)               = 1.40
   Outlying Charge Error Method         = double cavity

 =====================================================

  Total solvated Energy (a.u.)          =  -154.1496971807
  Total Energy corrected (a.u.)         =  -154.1498312121

  Outlying charge effect (a.u.)         =    -0.0001340314
  Outlying charge effect (kcal/mol)     =    -0.0841060460

  Dielectric Energy (a.u.)              =    -0.0113527450
  Dielectric energy corr. (a.u.)        =    -0.0114867764

  Sum of polarization charges           =     0.0197434912
  Sum of polarization charges(cor.)     =    -0.0197434912

  Total surface area of cavity (A**2)   =   87.39
  Total volume of cavity (A**3)         =   69.21

 =====================================================
 NPS=                   362
NR.  ATOM  (X, Y, Z)(a.u.)                  CHARGE(e)  AREA(A**2) SIGMA(e/A**2)
   1   1   0.620029   1.758630  -1.632974   0.000886   0.232280   0.003815
   2   1   0.029959  -1.317990   0.974090   0.000674   0.371649   0.001813
   3   1  -0.341224   0.307334   4.327834   0.001456   0.371649   0.003917
   4   1   5.251773  -0.161392   0.811611   0.000536   0.139368   0.003843
   5   1   4.762685  -0.798831   0.797531   0.000622   0.185824   0.003348
   6   1   4.928000  -0.808224   2.185284   0.000491   0.139368   0.003524
   7   1  -0.971143   0.728394   3.761153   0.000904   0.278737   0.003243
   8   1  -0.797020  -0.541323   1.010074   0.000838   0.418105   0.002005
   9   1  -0.018669   2.150530  -1.246408   0.001348   0.371649   0.003626
  10   1   0.131595   4.348836   0.011935   0.000090   0.185824   0.000484
  11   1   3.512207  -1.621146   0.692300   0.001477   0.371649   0.003974
  12   1   3.558831  -1.765591   1.401051   0.000878   0.232280   0.003780
  13   1   0.804109   3.953884  -0.902511   0.000526   0.278737   0.001886
  14   1   0.998560   2.968181  -1.546530   0.001255   0.371649   0.003377
  15   1   0.170385   0.634675  -1.217982   0.001969   0.511017   0.003854
  16   1  -0.049923  -0.632625  -0.185344   0.000913   0.418105   0.002184
  17   1  -0.237864  -1.217706   2.201956   0.001267   0.418105   0.003031
  18   1  -0.554112  -0.448078   3.396741   0.001404   0.325193   0.004317
  19   1  -0.505750   1.560187   4.538408   0.000879   0.325193   0.002703
  20   1  -0.246061   2.340148   4.703328   0.000246   0.139368   0.001768
  21   1   2.822021   3.477739  -1.433563   0.000048   0.139368   0.000344
  22   1   2.101427  -1.615601   0.029228   0.001054   0.371649   0.002835
  23   1   0.948332  -1.513130   0.241880   0.000922   0.464561   0.001985
  24   1   0.826854  -1.828479   1.519952   0.000710   0.325193   0.002184
  25   1   0.326818   0.837319   5.038911   0.000695   0.278737   0.002493
  26   1   1.332030   1.272386   5.501114   0.000123   0.185824   0.000663
  27   1   4.612699  -1.127476   1.543065   0.001361   0.371649   0.003662
  28   1  -0.724554   2.610135   4.140229   0.000178   0.185824   0.000957
  29   1  -0.879558  -0.495902   2.454955   0.001021   0.325193   0.003139
  30   1  -0.463996   0.192401  -0.464196   0.000677   0.278737   0.002428
  31   1   0.183536   3.400392  -0.930389   0.000580   0.232280   0.002497
  32   1   2.067171  -1.993786   1.062815   0.001269   0.418105   0.003035
  33   1   1.825093   3.588116  -1.431400   0.000614   0.278737   0.002202
  34   1   0.893183  -0.702625  -0.805534   0.000830   0.371649   0.002233
  35   1   0.426015   1.581588   5.204103   0.000381   0.232280   0.001640
  36   2   5.079349   4.408305  -0.507089   0.000280   0.185824   0.001506
  37   2  -0.006128   5.542118   2.916168  -0.000257   0.232280  -0.001107
  38   2   2.764573   7.445365   4.319795   0.000786   0.418105   0.001879
  39   2   3.154072   2.312128   6.241037   0.000045   0.139368   0.000325
  40   2   3.961742   1.934031   5.993188   0.000211   0.139368   0.001511
  41   2   4.367280   3.317131   6.481285   0.000248   0.092912   0.002666
  42   2   5.062783   7.395037   2.343627  -0.000216   0.092912  -0.002329
  43   2   2.659024   7.678849   3.388248   0.000501   0.278737   0.001799
  44   2   0.432754   6.125893   2.030681  -0.000580   0.418105  -0.001388
  45   2   5.187063   5.155004  -0.277756   0.000085   0.185824   0.000459
  46   2   0.556421   6.401011   3.351934   0.000063   0.371649   0.000169
  47   2   1.578484   7.146011   3.877446   0.000653   0.325193   0.002007
  48   2   4.038253   7.560518   4.062989   0.000077   0.371649   0.000208
  49   2   4.657820   7.557884   3.433097  -0.000403   0.092912  -0.004337
  50   2   0.090469   5.456514   3.837718  -0.000382   0.278737  -0.001370
  51   2   3.845256   7.116320   5.011061  -0.000327   0.371649  -0.000881
  52   2   4.465990   6.231931   5.772857  -0.000143   0.046456  -0.003081
  53   2   3.857574   2.599478   6.361373   0.000304   0.185824   0.001634
  54   2   4.207863   7.711651   3.153856  -0.000131   0.232280  -0.000566
  55   2   1.132740   6.994379   3.099344   0.000259   0.278737   0.000929
  56   2   4.395078   4.643180  -0.724377  -0.000051   0.139368  -0.000368
  57   2   5.596841   5.995459   0.478336   0.000362   0.092912   0.003897
  58   3   6.665234   0.703357   4.742911   0.006475   0.309230   0.020940
  59   3   8.024692   1.454680   1.603500   0.004704   0.240512   0.019560
  60   3   9.002714   2.913804   4.436103   0.001600   0.274871   0.005819
  61   3   8.465766   4.735291   1.398963   0.003354   0.343589   0.009760
  62   3   6.666877   3.528807   6.385496   0.002428   0.240512   0.010094
  63   3   6.650078   0.388181   3.942091   0.002946   0.137436   0.021436
  64   3   7.321347   0.846338   1.797002   0.005935   0.274871   0.021591
  65   3   7.380295   0.576183   3.734430   0.006319   0.309230   0.020434
  66   3   7.824327   0.819484   2.663358   0.006073   0.309230   0.019640
  67   3   7.474314   1.789272   0.817420   0.008879   0.377948   0.023492
  68   3   7.087968   2.703684   0.214308   0.005109   0.240512   0.021242
  69   3   5.975132   1.154904   5.447788   0.005855   0.240512   0.024343
  70   3   9.294593   3.429538   3.462884   0.000633   0.274871   0.002302
  71   3   9.127290   4.055999   2.289013   0.001706   0.309230   0.005516
  72   3   7.725092   5.275611   1.046644   0.002463   0.240512   0.010241
  73   3   7.002440   5.786340   1.091349   0.001126   0.206154   0.005464
  74   3   5.894842   3.923123   6.411190   0.000954   0.137436   0.006939
  75   3   7.504361   3.165314   6.084385   0.002311   0.240512   0.009611
  76   3   8.346728   2.999668   5.445493   0.002090   0.309230   0.006760
  77   3   7.722995   1.160209   4.721599   0.007362   0.377948   0.019479
  78   3   8.486404   2.020629   4.769698   0.005057   0.377948   0.013379
  79   3   9.049138   2.264146   3.496564   0.005604   0.481025   0.011650
  80   3   8.642017   1.639200   2.534046   0.006554   0.377948   0.017342
  81   3   8.552121   2.329910   1.467653   0.007595   0.412307   0.018421
  82   3   8.654517   3.539464   1.241068   0.007151   0.446666   0.016010
  83   3   7.768421   4.261749   0.539104   0.006675   0.377948   0.017662
  84   3   6.892698   3.881794   0.076353   0.006777   0.343589   0.019723
  85   3   5.897159   2.971885   6.397294   0.002990   0.206154   0.014501
  86   3   6.743117   2.531930   6.220713   0.004456   0.274871   0.016211
  87   3   6.794256   1.511693   5.660447   0.006952   0.343589   0.020233
  88   3   6.962153   0.396338   2.814721   0.004570   0.206154   0.022170
  89   3   8.305826   1.191280   3.637404   0.006758   0.377948   0.017882
  90   3   7.863633   3.021252   0.533677   0.007004   0.343589   0.020386
  91   3   5.802692   1.982744   6.059270   0.004714   0.274871   0.017150
  92   3   9.155533   2.959752   2.373473   0.004668   0.412307   0.011322
  93   3   6.977900   5.016363   0.472986   0.002790   0.206154   0.013533
  94   3   7.690908   2.102049   5.632993   0.006137   0.377948   0.016238
  95   4  -2.273645   2.507534   1.292882  -0.003842   0.588831  -0.006525
  96   4  -1.263397   2.451921  -0.398288  -0.001062   0.372926  -0.002848
  97   4  -1.133332   4.046191   0.781897  -0.001184   0.353299  -0.003351
  98   4  -1.564039   3.323165   2.887757  -0.001405   0.353299  -0.003976
  99   4  -1.898012   1.297460   2.721898  -0.001115   0.372926  -0.002990
 100   4  -1.757890   0.778440   0.748234  -0.001361   0.412182  -0.003302
 101   4  -1.509281   3.319271   0.228336  -0.002172   0.471065  -0.004611
 102   4  -1.753368   3.667531   1.785429  -0.002321   0.471065  -0.004927
 103   4  -1.978425   2.400647   2.818219  -0.002131   0.471065  -0.004524
 104   4  -2.113742   1.110781   1.714876  -0.002201   0.471065  -0.004672
 105   4  -1.802908   1.704277   0.131926  -0.002272   0.490692  -0.004630
 106   5   2.390318  -1.885629   4.536502  -0.003292   0.549575  -0.005989
 107   5   3.338574  -0.614254   5.214456  -0.001497   0.333671  -0.004486
 108   5   4.054472  -1.602023   3.405713  -0.000892   0.333671  -0.002673
 109   5   2.301745  -2.329723   2.781479  -0.000993   0.353299  -0.002812
 110   5   0.713507  -1.502487   4.039137  -0.000964   0.372926  -0.002584
 111   5   1.553144  -0.217754   5.413168  -0.001026   0.353299  -0.002905
 112   5   3.686357  -1.384036   4.491480  -0.002520   0.471065  -0.005349
 113   5   3.225496  -2.169980   3.262816  -0.001901   0.490692  -0.003875
 114   5   1.477926  -2.170933   3.486059  -0.001998   0.490692  -0.004072
 115   5   1.193524  -1.140104   4.895724  -0.001956   0.471065  -0.004152
 116   5   2.447174  -0.632711   5.439567  -0.001820   0.412182  -0.004415
 117   6   3.763574   0.496289  -2.189158  -0.003548   0.588831  -0.006026
 118   6   4.119963  -0.821335  -0.729969  -0.000728   0.314043  -0.002319
 119   6   4.904359   0.880241  -1.377913  -0.001726   0.353299  -0.004887
 120   6   3.690719   2.408713  -1.966112  -0.001179   0.353299  -0.003336
 121   6   2.013925   1.255870  -2.285235  -0.000970   0.372926  -0.002600
 122   6   2.380117  -0.628053  -1.577348  -0.001167   0.412182  -0.002831
 123   6   4.807700  -0.049653  -0.929883  -0.001703   0.431809  -0.003944
 124   6   4.447425   1.692044  -1.828504  -0.002138   0.412182  -0.005187
 125   6   2.965680   1.822253  -2.363571  -0.001920   0.471065  -0.004075
 126   6   2.315300   0.257501  -2.196275  -0.001967   0.471065  -0.004175
 127   6   3.479195  -0.716791  -1.445174  -0.001929   0.471065  -0.004095
 128   7   3.002683   7.533566   0.096431  -0.003613   0.608459  -0.005938
 129   7   2.473925   6.156676  -0.673427  -0.001472   0.353299  -0.004166
 130   7   4.463099   6.335970  -0.382006  -0.001009   0.333671  -0.003023
 131   7   4.520958   7.634171   1.146117  -0.001529   0.353299  -0.004327
 132   7   2.493734   7.932689   1.914087  -0.001043   0.372926  -0.002796
 133   7   1.191248   6.763272   0.828047  -0.001248   0.353299  -0.003532
 134   7   3.471269   6.212933  -0.763158  -0.002052   0.490692  -0.004183
 135   7   4.454361   7.188909   0.193319  -0.002261   0.490692  -0.004608
 136   7   3.524197   8.034813   1.419437  -0.002037   0.510320  -0.003992
 137   7   1.872729   7.607805   1.130473  -0.002212   0.490692  -0.004507
 138   7   1.766174   6.650524  -0.083551  -0.002016   0.490692  -0.004109
 139   8   1.604225   5.195407   6.821302  -0.003215   0.549575  -0.005850
 140   8   3.479658   4.418548   6.990502  -0.001229   0.372926  -0.003295
 141   8   1.970796   3.263228   6.682029  -0.001212   0.353299  -0.003430
 142   8   0.370554   4.663641   5.643112  -0.001648   0.392554  -0.004199
 143   8   1.233219   6.416938   5.431330  -0.001129   0.372926  -0.003028
 144   8   3.089633   6.345518   6.287479  -0.001405   0.412182  -0.003409
 145   8   2.469754   4.012928   7.082831  -0.002299   0.490692  -0.004686
 146   8   0.988807   3.965291   6.423769  -0.002033   0.490692  -0.004144
 147   8   0.698384   5.602653   5.769179  -0.001943   0.431809  -0.004501
 148   8   2.025859   6.444853   6.114281  -0.001992   0.471065  -0.004228
 149   8   3.089405   5.431078   6.930441  -0.002328   0.490692  -0.004745
 150   9   8.004716   6.877495   4.850105  -0.008803   0.471065  -0.018687
 151   9   8.929324   5.864190   2.869509  -0.006151   0.451437  -0.013626
 152   9   8.994872   4.878972   5.091416  -0.007040   0.471065  -0.014944
 153   9   6.966792   5.424391   6.256260  -0.006842   0.471065  -0.014524
 154   9   6.710672   7.151193   4.903955  -0.006564   0.353299  -0.018579
 155   9   7.306583   7.143372   2.856243  -0.005953   0.353299  -0.016850
 156   9   8.973600   6.131053   4.310323  -0.008733   0.490692  -0.017797
 157   9   8.237790   5.947408   5.628101  -0.008575   0.490692  -0.017476
 158   9   6.810335   6.492078   5.751651  -0.007599   0.471065  -0.016131
 159   9   7.004225   7.390910   3.908705  -0.007106   0.412182  -0.017240
 160   9   8.286947   6.917052   3.491321  -0.007873   0.451437  -0.017440
 161   9   9.329751   5.054589   3.848150  -0.005550   0.412182  -0.013466
 162   9   8.094947   4.794262   5.977849  -0.004547   0.372926  -0.012194
 163   9   7.919961   6.495540   2.262435  -0.004459   0.392554  -0.011359
 164   1  -0.003018   4.628300   0.709630  -0.000088   0.027355  -0.003227
 165   2   0.252590   5.001155   0.909113  -0.000092   0.027355  -0.003371
 166   4  -0.259040   4.477050   0.764319  -0.000126   0.027355  -0.004608
 167   1  -0.567023   3.587975   3.712314  -0.000079   0.027355  -0.002894
 168   2  -0.304167   3.974199   3.873211  -0.000101   0.027355  -0.003678
 169   4  -0.772586   3.529800   3.498365  -0.000092   0.027355  -0.003375
 170   1   2.221101   1.139496   5.574581  -0.000045   0.025415  -0.001783
 171   2   2.454904   1.551407   5.715154  -0.000030   0.025415  -0.001190
 172   5   2.266828   0.843030   5.538126  -0.000088   0.025415  -0.003481
 173   1   3.497074   3.490878  -1.213789  -0.000033   0.025402  -0.001298
 174   2   3.715888   3.875169  -0.993483  -0.000026   0.025402  -0.001040
 175   6   3.561447   3.228969  -1.350068  -0.000054   0.025402  -0.002121
 176   1   3.145988   4.158254  -1.005294  -0.000022   0.026990  -0.000799
 177   2   3.380116   4.569777  -0.863975  -0.000060   0.026990  -0.002210
 178   7   3.320893   4.864569  -0.830418  -0.000085   0.026990  -0.003157
 179   1   0.510839   4.980912   0.506069  -0.000086   0.026990  -0.003200
 180   2   0.710470   5.403205   0.667174  -0.000124   0.026990  -0.004591
 181   7   0.890308   5.623365   0.563620  -0.000175   0.026990  -0.006489
 182   1  -0.193925   3.692907   4.231772  -0.000081   0.026995  -0.003011
 183   2  -0.001708   4.101646   4.432080  -0.000114   0.026995  -0.004225
 184   8   0.108156   4.193883   4.698463  -0.000129   0.026995  -0.004777
 185   1   1.876675   1.837336   5.707453  -0.000035   0.026995  -0.001289
 186   2   2.095997   2.221785   5.927078  -0.000068   0.026995  -0.002526
 187   8   2.018018   2.482358   6.059588  -0.000117   0.026995  -0.004318
 188   2   0.517722   5.317132   0.782278  -0.000083   0.048185  -0.001732
 189   1   0.156149   4.743296   0.569924  -0.000033   0.048185  -0.000681
 190   2  -0.149819   4.151499   4.191540  -0.000083   0.046453  -0.001785
 191   1  -0.461501   3.550051   3.977080  -0.000023   0.046453  -0.000491
 192   2   2.280198   1.981281   5.906972  -0.000023   0.077413  -0.000301
 193   1   2.034245   1.363167   5.646330   0.000010   0.077413   0.000135
 194   2   3.650385   4.302406  -0.933483  -0.000010   0.075963  -0.000133
 195   1   3.243064   3.776076  -1.192778   0.000040   0.075963   0.000524
 196   1   4.992502  -0.457153   3.109556   0.000383   0.055932   0.006839
 197   3   5.620284   0.021868   3.322568   0.001057   0.055932   0.018902
 198   5   4.800768  -0.600993   3.294976   0.000038   0.055932   0.000686
 199   1   5.477580   0.438099   0.532358   0.000366   0.055800   0.006555
 200   3   6.081945   0.874094   0.869383   0.000925   0.055800   0.016585
 201   6   5.373841   0.456699   0.248247   0.000098   0.055800   0.001753
 202   3   6.259118   0.186697   2.891527   0.005508   0.332709   0.016554
 203   3   6.522835   0.673403   1.490986   0.005438   0.332709   0.016344
 204   1   5.417580  -0.101543   1.823234   0.004196   0.730424   0.005745
 205   4  -0.538854   4.162523   0.433550  -0.000207   0.067546  -0.003058
 206   4  -0.607296   3.369292  -0.313686  -0.000427   0.149372  -0.002861
 207   4  -0.823150   2.100950  -0.614786  -0.000419   0.149372  -0.002806
 208   4  -1.118995   0.924476  -0.091017  -0.000427   0.149372  -0.002862
 209   4  -1.377022   0.308352   1.049052  -0.000479   0.149372  -0.003207
 210   4  -1.494485   0.497921   2.351440  -0.000357   0.149372  -0.002388
 211   4  -1.424608   1.417696   3.297525  -0.000459   0.149372  -0.003074
 212   4  -1.195217   2.701416   3.510572  -0.000525   0.149372  -0.003516
 213   1  -0.175524   4.001893  -0.005102  -0.000358   0.148627  -0.002407
 214   1  -0.332859   2.744763  -0.778961  -0.000194   0.148627  -0.001303
 215   1  -0.635790   1.297405  -0.647139  -0.000113   0.148627  -0.000760
 216   1  -0.963688   0.236168   0.337871  -0.000277   0.148627  -0.001866
 217   1  -1.185982  -0.016358   1.783833  -0.000215   0.148627  -0.001445
 218   1  -1.214153   0.640386   3.114953  -0.000112   0.148627  -0.000754
 219   1  -1.036984   1.944879   3.801172  -0.000233   0.148627  -0.001570
 220   1  -0.798065   3.125525   3.762421  -0.000163   0.082523  -0.001975
 221   5   1.905837   0.439730   5.498162  -0.000181   0.070438  -0.002566
 222   5   0.953261  -0.009229   5.072315  -0.000447   0.157170  -0.002844
 223   5   0.359790  -0.819453   4.137769  -0.000339   0.157170  -0.002155
 224   5   0.658867  -1.629527   3.071756  -0.000418   0.157170  -0.002662
 225   5   1.721150  -2.089119   2.335294  -0.000464   0.157170  -0.002950
 226   5   3.087237  -1.999472   2.246877  -0.000287   0.157170  -0.001825
 227   5   4.166340  -1.399355   2.844743  -0.000351   0.157170  -0.002230
 228   1   1.375466   0.678268   5.337398  -0.000331   0.153659  -0.002155
 229   1   0.291503  -0.077070   4.544440  -0.000162   0.153659  -0.001054
 230   1   0.116440  -1.040594   3.354790  -0.000171   0.153659  -0.001113
 231   1   0.925984  -1.795611   2.282933  -0.000196   0.153659  -0.001276
 232   1   2.370035  -2.015603   1.792412  -0.000129   0.153659  -0.000838
 233   1   3.824089  -1.605428   2.095360  -0.000002   0.153659  -0.000015
 234   1   4.634615  -0.954907   2.796426   0.000084   0.086055   0.000976
 235   6   5.021247  -0.049956  -0.076116  -0.000074   0.070465  -0.001046
 236   6   4.200260  -0.826254  -0.196944  -0.000330   0.157245  -0.002098
 237   6   2.937857  -1.132774  -0.639368  -0.000341   0.157245  -0.002169
 238   6   1.849846  -0.571462  -1.259463  -0.000436   0.157245  -0.002774
 239   6   1.407117   0.614748  -1.788853  -0.000325   0.157245  -0.002065
 240   6   1.801282   1.912466  -1.998419  -0.000408   0.157245  -0.002593
 241   6   2.861746   2.760043  -1.797462  -0.000508   0.157245  -0.003233
 242   1   4.767395  -0.442398   0.305620  -0.000036   0.153707  -0.000237
 243   1   3.487139  -1.244158  -0.001057   0.000026   0.153707   0.000168
 244   1   2.089384  -1.092637  -0.632921  -0.000186   0.153707  -0.001207
 245   1   1.179078  -0.053414  -1.316502  -0.000181   0.153707  -0.001181
 246   1   1.150197   1.423739  -1.755947  -0.000041   0.153707  -0.000268
 247   1   2.015242   2.699512  -1.761067  -0.000151   0.153707  -0.000983
 248   1   3.094450   3.269083  -1.471805  -0.000093   0.086089  -0.001080
 249   7   2.934748   5.152152  -0.824093  -0.000670   0.209772  -0.003195
 250   7   1.627070   5.554812  -0.169088  -0.002326   0.431141  -0.005396
 251   1   2.018900   4.316717  -0.893243  -0.000258   0.572993  -0.000450
 252   1   0.612065   4.760993   0.000158   0.000033   0.295575   0.000110
 253   8   0.243686   3.995987   5.116066  -0.000871   0.209805  -0.004153
 254   8   1.178773   3.069385   5.870354  -0.002177   0.431215  -0.005049
 255   1   0.134415   2.788185   4.849912  -0.000439   0.573079  -0.000765
 256   1   1.324043   1.802815   5.617711   0.000173   0.295622   0.000586
 257   2   4.226528   1.314810   5.459425   0.000457   0.094701   0.004823
 258   3   4.697596   1.305258   5.407524   0.001134   0.094701   0.011969
 259   5   3.902304   0.675262   5.224915   0.000157   0.094701   0.001661
 260   2   5.327952   3.329458  -0.367637   0.000479   0.094644   0.005063
 261   3   5.753904   3.237510  -0.181106   0.001330   0.094644   0.014050
 262   6   5.018539   2.719211  -0.685538   0.000073   0.094644   0.000767
 263   2   6.138702   6.421993   1.484647  -0.000185   0.038661  -0.004786
 264   3   6.580784   6.279412   1.569952  -0.000161   0.038661  -0.004175
 265   9   6.718277   6.436311   1.816175  -0.000409   0.038661  -0.010585
 266   2   5.240831   4.775675   6.224621  -0.000185   0.038661  -0.004794
 267   3   5.699647   4.663779   6.221583  -0.000179   0.038661  -0.004626
 268   9   5.891415   4.920194   6.181285  -0.000420   0.038661  -0.010876
 269   3   5.518826   4.133053   6.334458   0.000536   0.167218   0.003203
 270   3   5.220960   2.488321   6.059073   0.004970   0.346797   0.014332
 271   2   4.732238   3.623837   6.327815   0.001186   0.359258   0.003302
 272   2   4.445896   1.944536   5.897907   0.001284   0.182940   0.007018
 273   3   6.234592   3.911192  -0.024891   0.002577   0.167699   0.015369
 274   3   6.447334   5.417772   0.730029   0.003014   0.347889   0.008664
 275   2   5.698623   4.679896   0.021993   0.002427   0.360284   0.006737
 276   2   5.890092   6.174458   0.934612   0.000012   0.183466   0.000064
 277   4  -0.955086   3.748484   3.103128  -0.000743   0.212173  -0.003501
 278   4  -0.733272   4.312365   1.692001  -0.002564   0.436550  -0.005874
 279   2  -0.241689   4.763039   3.027491  -0.001675   0.579152  -0.002892
 280   2   0.105152   5.261872   1.390628  -0.000431   0.298985  -0.001442
 281   5   3.054307   0.424570   5.407759  -0.000992   0.293434  -0.003382
 282   2   3.160239   1.512710   5.771771   0.000016   0.412788   0.000039
 283   6   4.057642   2.860836  -1.330438  -0.001027   0.295062  -0.003480
 284   2   4.631816   3.675451  -0.751317   0.000137   0.415065   0.000331
 285   2   5.494435   7.085119   1.998895  -0.000157   0.009521  -0.016504
 286   7   5.276475   7.156430   1.802787  -0.000107   0.009521  -0.011238
 287   9   6.073948   6.979666   2.310279  -0.000271   0.009521  -0.028438
 288   2   5.704975   6.763126   1.560270  -0.000106   0.009521  -0.011097
 289   7   5.465778   6.866915   1.408404  -0.000117   0.009521  -0.012267
 290   9   6.260509   6.694347   1.921610  -0.000197   0.009521  -0.020738
 291   7   5.199070   6.870822   0.904321  -0.000339   0.069875  -0.004858
 292   7   4.970764   6.157961   0.062620  -0.000712   0.155574  -0.004578
 293   7   4.047314   5.450084  -0.643392  -0.000687   0.155574  -0.004418
 294   2   5.436717   6.343075   0.741984  -0.000720   0.152754  -0.004712
 295   2   4.817303   5.410660  -0.299188  -0.000534   0.152754  -0.003498
 296   2   3.809989   4.867730  -0.784976  -0.000193   0.085367  -0.002260
 297   7   0.964388   6.118339   0.759871  -0.000296   0.068361  -0.004336
 298   7   1.138362   6.818005   1.595328  -0.000718   0.151501  -0.004739
 299   7   1.986242   7.539179   2.331913  -0.000565   0.151501  -0.003731
 300   7   3.277742   7.845842   2.471689  -0.000623   0.151501  -0.004115
 301   7   4.487433   7.613233   1.957791  -0.000800   0.151501  -0.005283
 302   2   0.782794   6.115346   1.326546  -0.000735   0.150109  -0.004898
 303   2   1.320464   7.041969   2.375764  -0.000473   0.150109  -0.003154
 304   2   2.588419   7.651142   2.895160  -0.000382   0.150109  -0.002547
 305   2   4.070811   7.695032   2.673428  -0.000592   0.150109  -0.003946
 306   2   5.056031   7.341097   2.050857  -0.000368   0.083518  -0.004407
 307   2   4.822609   5.128400   6.235272  -0.000110   0.010161  -0.010858
 308   8   4.536696   5.148972   6.329548  -0.000098   0.010161  -0.009678
 309   9   5.469588   5.229265   6.112122  -0.000207   0.010161  -0.020394
 310   2   4.726600   5.706692   6.025278  -0.000131   0.010161  -0.012859
 311   8   4.450369   5.668950   6.140729  -0.000127   0.010161  -0.012508
 312   9   5.384512   5.741710   5.926039  -0.000279   0.010161  -0.027469
 313   8   3.949481   5.916572   6.236569  -0.000377   0.068175  -0.005533
 314   8   3.266403   6.612273   5.725720  -0.000666   0.151004  -0.004408
 315   8   2.098644   6.841542   5.128508  -0.000503   0.151004  -0.003333
 316   8   0.954193   6.259977   4.775095  -0.000709   0.151004  -0.004697
 317   8   0.296174   5.102919   4.808495  -0.000782   0.151004  -0.005181
 318   2   4.031521   6.294565   5.785328  -0.000881   0.149782  -0.005884
 319   2   2.913891   6.991706   5.076364  -0.000427   0.149782  -0.002852
 320   2   1.543889   6.782967   4.513112  -0.000419   0.149782  -0.002795
 321   2   0.475912   5.752820   4.323502  -0.000618   0.149782  -0.004123
 322   2   0.070676   4.616401   4.465970  -0.000321   0.083291  -0.003853
 323   8   2.312261   2.795157   6.389424  -0.000228   0.069477  -0.003280
 324   8   3.257929   3.328377   6.666305  -0.000637   0.154500  -0.004126
 325   8   3.986668   4.469671   6.669613  -0.000867   0.154500  -0.005609
 326   2   2.891083   2.659556   6.311903  -0.000555   0.152064  -0.003648
 327   2   4.030981   3.638417   6.548984  -0.000567   0.152064  -0.003731
 328   2   4.500084   4.776845   6.434994  -0.000358   0.084882  -0.004220
 329   9   6.759756   6.648005   1.940362  -0.000387   0.059756  -0.006477
 330   2   5.911846   6.691355   1.509300  -0.000208   0.073006  -0.002848
 331   9   6.386243   7.175277   2.760300  -0.002613   0.180999  -0.014435
 332   9   6.010111   7.235483   4.033352  -0.006782   0.374315  -0.018119
 333   9   5.813151   6.487984   5.440281  -0.006182   0.374315  -0.016517
 334   2   5.341109   7.302653   2.946911  -0.003601   0.429339  -0.008388
 335   2   4.930378   7.009609   4.678014  -0.004094   0.429339  -0.009536
 336   2   4.855180   6.089949   5.817913  -0.001345   0.221130  -0.006084
 337   9   5.934805   5.213430   6.221224  -0.000424   0.057079  -0.007426
 338   2   5.017732   4.972058   6.305340  -0.000144   0.069735  -0.002065
 339   5   4.723255  -0.725363   3.724998   0.000339   0.255369   0.001328
 340   5   4.212448  -0.190419   4.779974  -0.000088   0.513859  -0.000172
 341   3   5.767983   0.295759   4.282984   0.008475   0.631418   0.013422
 342   3   5.145564   0.953335   5.358824   0.003707   0.318135   0.011651
 343   6   5.122287   2.173475  -0.961542  -0.000011   0.254412  -0.000043
 344   6   5.408533   1.043662  -0.423981   0.000200   0.511893   0.000390
 345   3   6.339760   2.407574  -0.008138   0.008188   0.629120   0.013015
 346   3   6.559133   1.194160   0.656491   0.004177   0.316962   0.013178
 347   9   6.451197   4.834513   6.263464  -0.000552   0.084375  -0.006545
 348   9   7.561179   4.304608   6.042711  -0.001702   0.183533  -0.009275
 349   9   8.718657   4.079245   5.093187  -0.002175   0.183533  -0.011850
 350   9   9.201218   4.437344   3.703567  -0.002232   0.183533  -0.012161
 351   9   8.800518   5.224297   2.473817  -0.001852   0.183533  -0.010093
 352   9   7.689557   6.100340   1.934877  -0.001674   0.183533  -0.009121
 353   3   6.666119   4.212310   6.233043  -0.000519   0.180450  -0.002879
 354   3   8.092201   3.675761   5.632289  -0.000763   0.180450  -0.004226
 355   3   9.031438   3.751779   4.292679  -0.001424   0.180450  -0.007889
 356   3   9.078319   4.407541   2.792587  -0.001181   0.180450  -0.006544
 357   3   8.212603   5.359926   1.779671  -0.000623   0.180450  -0.003453
 358   3   7.116343   6.087573   1.548598  -0.000297   0.096607  -0.003074
 359   9   6.521577   6.938101   2.142349  -0.000933   0.165280  -0.005645
 360   7   5.327803   7.206150   1.511504  -0.000234   0.165280  -0.001414
 361   9   5.739828   5.641400   6.140151  -0.001319   0.176395  -0.007478
 362   8   4.416715   5.411472   6.442460  -0.000255   0.176395  -0.001444
 =====================================================

              1141721  WORDS OF DYNAMIC MEMORY USED
 EXECUTION OF GAMESS TERMINATED NORMALLY Thu Jan 30 01:47:45 2020
 DDI: 263640 bytes (0.3 MB / 0 MWords) used by master data server.

 ----------------------------------------
 CPU timing information for all processes
 ========================================
 0: 67.818 + 0.399 = 68.218
 ----------------------------------------
 ddikick.x: exited gracefully